ITEM: TIMESTEP
12
ITEM: NUMBER OF ATOMS
2560
ITEM: BOX BOUNDS pp pp pp
2.5652377805415034e-02 3.2366205888826173e+01
3.5544976447875111e-02 4.4847929293422084e+01
3.2791649293429204e-02 4.1373991936188837e+01
ITEM: ATOMS id type x y z vx vy vz c_eng
1 1 0.0256524 0.0356383 0.0327916 0 0 0 -6.63471
2 1 1.64268 2.83641 0.0327916 0 0 0 -6.63471
3 1 1.64268 0.96923 2.61662 0 0 0 -6.63471
4 1 0.0256524 3.77 2.61662 0 0 0 -6.63471
5 1 3.25971 0.0356383 0.0327916 0 0 0 -6.63471
6 1 4.87674 2.83641 0.0327916 0 0 0 -6.63471
7 1 4.87674 0.96923 2.61662 0 0 0 -6.63471
8 1 3.25971 3.77 2.61662 0 0 0 -6.63471
9 1 6.49376 0.0356383 0.0327916 0 0 0 -6.63471
10 1 8.11079 2.83641 0.0327916 0 0 0 -6.63471
11 1 8.11079 0.96923 2.61662 0 0 0 -6.63471
12 1 6.49376 3.77 2.61662 0 0 0 -6.63471
13 1 9.72782 0.0356383 0.0327916 0 0 0 -6.63471
16 1 9.72782 3.77 2.61662 0 0 0 -6.63471
14 1 11.3448 2.83641 0.0327916 0 0 0 -6.63471
15 1 11.3448 0.96923 2.61662 0 0 0 -6.63471
17 1 12.9619 0.0356383 0.0327916 0 0 0 -6.63471
18 1 14.5789 2.83641 0.0327916 0 0 0 -6.63471
19 1 14.5789 0.96923 2.61662 0 0 0 -6.63471
20 1 12.9619 3.77 2.61662 0 0 0 -6.63471
21 1 16.1959 0.0356383 0.0327916 0 0 0 -6.63471
22 1 17.813 2.83641 0.0327916 0 0 0 -6.63471
23 1 17.813 0.96923 2.61662 0 0 0 -6.63471
24 1 16.1959 3.77 2.61662 0 0 0 -6.63471
25 1 19.43 0.0356383 0.0327916 0 0 0 -6.63471
26 1 21.047 2.83641 0.0327916 0 0 0 -6.63471
27 1 21.047 0.96923 2.61662 0 0 0 -6.63471
28 1 19.43 3.77 2.61662 0 0 0 -6.63471
29 1 22.664 0.0356383 0.0327916 0 0 0 -6.63471
30 1 24.2811 2.83641 0.0327916 0 0 0 -6.63471
31 1 24.2811 0.96923 2.61662 0 0 0 -6.63471
32 1 22.664 3.77 2.61662 0 0 0 -6.63471
33 1 25.8981 0.0356383 0.0327916 0 0 0 -6.63471
36 1 25.8981 3.77 2.61662 0 0 0 -6.63471
34 1 27.5151 2.83641 0.0327916 0 0 0 -6.63471
35 1 27.5151 0.96923 2.61662 0 0 0 -6.63471
37 1 29.1322 0.0356383 0.0327916 0 0 0 -6.63471
38 1 30.7492 2.83641 0.0327916 0 0 0 -6.63471
39 1 30.7492 0.96923 2.61662 0 0 0 -6.63471
40 1 29.1322 3.77 2.61662 0 0 0 -6.63471
41 1 0.0256524 5.63719 0.0327916 0 0 0 -6.63471
42 1 1.64268 8.43796 0.0327916 0 0 0 -6.63471
43 1 1.64268 6.57078 2.61662 0 0 0 -6.63471
44 1 0.0256524 9.37155 2.61662 0 0 0 -6.63471
45 1 3.25971 5.63719 0.0327916 0 0 0 -6.63471
46 1 4.87674 8.43796 0.0327916 0 0 0 -6.63471
47 1 4.87674 6.57078 2.61662 0 0 0 -6.63471
48 1 3.25971 9.37155 2.61662 0 0 0 -6.63471
49 1 6.49376 5.63719 0.0327916 0 0 0 -6.63471
50 1 8.11079 8.43796 0.0327916 0 0 0 -6.63471
51 1 8.11079 6.57078 2.61662 0 0 0 -6.63471
52 1 6.49376 9.37155 2.61662 0 0 0 -6.63471
53 1 9.72782 5.63719 0.0327916 0 0 0 -6.63471
56 1 9.72782 9.37155 2.61662 0 0 0 -6.63471
54 1 11.3448 8.43796 0.0327916 0 0 0 -6.63471
55 1 11.3448 6.57078 2.61662 0 0 0 -6.63471
57 1 12.9619 5.63719 0.0327916 0 0 0 -6.63471
58 1 14.5789 8.43796 0.0327916 0 0 0 -6.63471
59 1 14.5789 6.57078 2.61662 0 0 0 -6.63471
60 1 12.9619 9.37155 2.61662 0 0 0 -6.63471
61 1 16.1959 5.63719 0.0327916 0 0 0 -6.63471
62 1 17.813 8.43796 0.0327916 0 0 0 -6.63471
63 1 17.813 6.57078 2.61662 0 0 0 -6.63471
64 1 16.1959 9.37155 2.61662 0 0 0 -6.63471
65 1 19.43 5.63719 0.0327916 0 0 0 -6.63471
66 1 21.047 8.43796 0.0327916 0 0 0 -6.63471
67 1 21.047 6.57078 2.61662 0 0 0 -6.63471
68 1 19.43 9.37155 2.61662 0 0 0 -6.63471
69 1 22.664 5.63719 0.0327916 0 0 0 -6.63471
70 1 24.2811 8.43796 0.0327916 0 0 0 -6.63471
71 1 24.2811 6.57078 2.61662 0 0 0 -6.63471
72 1 22.664 9.37155 2.61662 0 0 0 -6.63471
73 1 25.8981 5.63719 0.0327916 0 0 0 -6.63471
76 1 25.8981 9.37155 2.61662 0 0 0 -6.63471
74 1 27.5151 8.43796 0.0327916 0 0 0 -6.63471
75 1 27.5151 6.57078 2.61662 0 0 0 -6.63471
77 1 29.1322 5.63719 0.0327916 0 0 0 -6.63471
78 1 30.7492 8.43796 0.0327916 0 0 0 -6.63471
79 1 30.7492 6.57078 2.61662 0 0 0 -6.63471
80 1 29.1322 9.37155 2.61662 0 0 0 -6.63471
81 1 0.0256524 11.2387 0.0327916 0 0 0 -6.63471
82 1 1.64268 14.0395 0.0327916 0 0 0 -6.63471
83 1 1.64268 12.1723 2.61662 0 0 0 -6.63471
85 1 3.25971 11.2387 0.0327916 0 0 0 -6.63471
86 1 4.87674 14.0395 0.0327916 0 0 0 -6.63471
87 1 4.87674 12.1723 2.61662 0 0 0 -6.63471
89 1 6.49376 11.2387 0.0327916 0 0 0 -6.63471
90 1 8.11079 14.0395 0.0327916 0 0 0 -6.63471
91 1 8.11079 12.1723 2.61662 0 0 0 -6.63471
93 1 9.72782 11.2387 0.0327916 0 0 0 -6.63471
94 1 11.3448 14.0395 0.0327916 0 0 0 -6.63471
95 1 11.3448 12.1723 2.61662 0 0 0 -6.63471
97 1 12.9619 11.2387 0.0327916 0 0 0 -6.63471
98 1 14.5789 14.0395 0.0327916 0 0 0 -6.63471
99 1 14.5789 12.1723 2.61662 0 0 0 -6.63471
101 1 16.1959 11.2387 0.0327916 0 0 0 -6.63471
102 1 17.813 14.0395 0.0327916 0 0 0 -6.63471
103 1 17.813 12.1723 2.61662 0 0 0 -6.63471
105 1 19.43 11.2387 0.0327916 0 0 0 -6.63471
106 1 21.047 14.0395 0.0327916 0 0 0 -6.63471
107 1 21.047 12.1723 2.61662 0 0 0 -6.63471
109 1 22.664 11.2387 0.0327916 0 0 0 -6.63471
110 1 24.2811 14.0395 0.0327916 0 0 0 -6.63471
111 1 24.2811 12.1723 2.61662 0 0 0 -6.63471
113 1 25.8981 11.2387 0.0327916 0 0 0 -6.63471
114 1 27.5151 14.0395 0.0327916 0 0 0 -6.63471
115 1 27.5151 12.1723 2.61662 0 0 0 -6.63471
117 1 29.1322 11.2387 0.0327916 0 0 0 -6.63471
118 1 30.7492 14.0395 0.0327916 0 0 0 -6.63471
119 1 30.7492 12.1723 2.61662 0 0 0 -6.63471
84 1 0.0256524 14.9731 2.61662 0 0 0 -6.63471
88 1 3.25971 14.9731 2.61662 0 0 0 -6.63471
121 1 0.0256524 16.8403 0.0327916 0 0 0 -6.63471
122 1 1.64268 19.6411 0.0327916 0 0 0 -6.63471
123 1 1.64268 17.7739 2.61662 0 0 0 -6.63471
125 1 3.25971 16.8403 0.0327916 0 0 0 -6.63471
126 1 4.87674 19.6411 0.0327916 0 0 0 -6.63471
127 1 4.87674 17.7739 2.61662 0 0 0 -6.63471
92 1 6.49376 14.9731 2.61662 0 0 0 -6.63471
96 1 9.72782 14.9731 2.61662 0 0 0 -6.63471
129 1 6.49376 16.8403 0.0327916 0 0 0 -6.63471
130 1 8.11079 19.6411 0.0327916 0 0 0 -6.63471
131 1 8.11079 17.7739 2.61662 0 0 0 -6.63471
133 1 9.72782 16.8403 0.0327916 0 0 0 -6.63471
100 1 12.9619 14.9731 2.61662 0 0 0 -6.63471
134 1 11.3448 19.6411 0.0327916 0 0 0 -6.63471
135 1 11.3448 17.7739 2.61662 0 0 0 -6.63471
137 1 12.9619 16.8403 0.0327916 0 0 0 -6.63471
138 1 14.5789 19.6411 0.0327916 0 0 0 -6.63471
139 1 14.5789 17.7739 2.61662 0 0 0 -6.63471
104 1 16.1959 14.9731 2.61662 0 0 0 -6.63471
108 1 19.43 14.9731 2.61662 0 0 0 -6.63471
141 1 16.1959 16.8403 0.0327916 0 0 0 -6.63471
142 1 17.813 19.6411 0.0327916 0 0 0 -6.63471
143 1 17.813 17.7739 2.61662 0 0 0 -6.63471
145 1 19.43 16.8403 0.0327916 0 0 0 -6.63471
146 1 21.047 19.6411 0.0327916 0 0 0 -6.63471
147 1 21.047 17.7739 2.61662 0 0 0 -6.63471
112 1 22.664 14.9731 2.61662 0 0 0 -6.63471
116 1 25.8981 14.9731 2.61662 0 0 0 -6.63471
149 1 22.664 16.8403 0.0327916 0 0 0 -6.63471
150 1 24.2811 19.6411 0.0327916 0 0 0 -6.63471
151 1 24.2811 17.7739 2.61662 0 0 0 -6.63471
153 1 25.8981 16.8403 0.0327916 0 0 0 -6.63471
120 1 29.1322 14.9731 2.61662 0 0 0 -6.63471
154 1 27.5151 19.6411 0.0327916 0 0 0 -6.63471
155 1 27.5151 17.7739 2.61662 0 0 0 -6.63471
157 1 29.1322 16.8403 0.0327916 0 0 0 -6.63471
158 1 30.7492 19.6411 0.0327916 0 0 0 -6.63471
159 1 30.7492 17.7739 2.61662 0 0 0 -6.63471
124 1 0.0256524 20.5746 2.61662 0 0 0 -6.63471
128 1 3.25971 20.5746 2.61662 0 0 0 -6.63471
161 1 0.0256524 22.4418 0.0327916 0 0 0 -6.63471
163 1 1.64268 23.3754 2.61662 0 0 0 -6.63471
165 1 3.25971 22.4418 0.0327916 0 0 0 -6.63471
167 1 4.87674 23.3754 2.61662 0 0 0 -6.63471
132 1 6.49376 20.5746 2.61662 0 0 0 -6.63471
136 1 9.72782 20.5746 2.61662 0 0 0 -6.63471
169 1 6.49376 22.4418 0.0327916 0 0 0 -6.63471
171 1 8.11079 23.3754 2.61662 0 0 0 -6.63471
173 1 9.72782 22.4418 0.0327916 0 0 0 -6.63471
140 1 12.9619 20.5746 2.61662 0 0 0 -6.63471
175 1 11.3448 23.3754 2.61662 0 0 0 -6.63471
177 1 12.9619 22.4418 0.0327916 0 0 0 -6.63471
179 1 14.5789 23.3754 2.61662 0 0 0 -6.63471
144 1 16.1959 20.5746 2.61662 0 0 0 -6.63471
148 1 19.43 20.5746 2.61662 0 0 0 -6.63471
181 1 16.1959 22.4418 0.0327916 0 0 0 -6.63471
183 1 17.813 23.3754 2.61662 0 0 0 -6.63471
185 1 19.43 22.4418 0.0327916 0 0 0 -6.63471
187 1 21.047 23.3754 2.61662 0 0 0 -6.63471
152 1 22.664 20.5746 2.61662 0 0 0 -6.63471
156 1 25.8981 20.5746 2.61662 0 0 0 -6.63471
189 1 22.664 22.4418 0.0327916 0 0 0 -6.63471
191 1 24.2811 23.3754 2.61662 0 0 0 -6.63471
193 1 25.8981 22.4418 0.0327916 0 0 0 -6.63471
160 1 29.1322 20.5746 2.61662 0 0 0 -6.63471
195 1 27.5151 23.3754 2.61662 0 0 0 -6.63471
197 1 29.1322 22.4418 0.0327916 0 0 0 -6.63471
199 1 30.7492 23.3754 2.61662 0 0 0 -6.63471
162 1 1.64268 25.2426 0.0327916 0 0 0 -6.63471
164 1 0.0256524 26.1762 2.61662 0 0 0 -6.63471
166 1 4.87674 25.2426 0.0327916 0 0 0 -6.63471
168 1 3.25971 26.1762 2.61662 0 0 0 -6.63471
201 1 0.0256524 28.0434 0.0327916 0 0 0 -6.63471
203 1 1.64268 28.977 2.61662 0 0 0 -6.63471
205 1 3.25971 28.0434 0.0327916 0 0 0 -6.63471
207 1 4.87674 28.977 2.61662 0 0 0 -6.63471
170 1 8.11079 25.2426 0.0327916 0 0 0 -6.63471
172 1 6.49376 26.1762 2.61662 0 0 0 -6.63471
176 1 9.72782 26.1762 2.61662 0 0 0 -6.63471
209 1 6.49376 28.0434 0.0327916 0 0 0 -6.63471
211 1 8.11079 28.977 2.61662 0 0 0 -6.63471
213 1 9.72782 28.0434 0.0327916 0 0 0 -6.63471
174 1 11.3448 25.2426 0.0327916 0 0 0 -6.63471
178 1 14.5789 25.2426 0.0327916 0 0 0 -6.63471
180 1 12.9619 26.1762 2.61662 0 0 0 -6.63471
215 1 11.3448 28.977 2.61662 0 0 0 -6.63471
217 1 12.9619 28.0434 0.0327916 0 0 0 -6.63471
219 1 14.5789 28.977 2.61662 0 0 0 -6.63471
182 1 17.813 25.2426 0.0327916 0 0 0 -6.63471
184 1 16.1959 26.1762 2.61662 0 0 0 -6.63471
186 1 21.047 25.2426 0.0327916 0 0 0 -6.63471
188 1 19.43 26.1762 2.61662 0 0 0 -6.63471
221 1 16.1959 28.0434 0.0327916 0 0 0 -6.63471
223 1 17.813 28.977 2.61662 0 0 0 -6.63471
225 1 19.43 28.0434 0.0327916 0 0 0 -6.63471
227 1 21.047 28.977 2.61662 0 0 0 -6.63471
190 1 24.2811 25.2426 0.0327916 0 0 0 -6.63471
192 1 22.664 26.1762 2.61662 0 0 0 -6.63471
196 1 25.8981 26.1762 2.61662 0 0 0 -6.63471
229 1 22.664 28.0434 0.0327916 0 0 0 -6.63471
231 1 24.2811 28.977 2.61662 0 0 0 -6.63471
233 1 25.8981 28.0434 0.0327916 0 0 0 -6.63471
194 1 27.5151 25.2426 0.0327916 0 0 0 -6.63471
198 1 30.7492 25.2426 0.0327916 0 0 0 -6.63471
200 1 29.1322 26.1762 2.61662 0 0 0 -6.63471
235 1 27.5151 28.977 2.61662 0 0 0 -6.63471
237 1 29.1322 28.0434 0.0327916 0 0 0 -6.63471
239 1 30.7492 28.977 2.61662 0 0 0 -6.63471
202 1 1.64268 30.8442 0.0327916 0 0 0 -6.63471
204 1 0.0256524 31.7777 2.61662 0 0 0 -6.63471
206 1 4.87674 30.8442 0.0327916 0 0 0 -6.63471
208 1 3.25971 31.7777 2.61662 0 0 0 -6.63471
241 1 0.0256524 33.6449 0.0327916 0 0 0 -6.63471
243 1 1.64268 34.5785 2.61662 0 0 0 -6.63471
245 1 3.25971 33.6449 0.0327916 0 0 0 -6.63471
247 1 4.87674 34.5785 2.61662 0 0 0 -6.63471
210 1 8.11079 30.8442 0.0327916 0 0 0 -6.63471
212 1 6.49376 31.7777 2.61662 0 0 0 -6.63471
216 1 9.72782 31.7777 2.61662 0 0 0 -6.63471
249 1 6.49376 33.6449 0.0327916 0 0 0 -6.63471
251 1 8.11079 34.5785 2.61662 0 0 0 -6.63471
253 1 9.72782 33.6449 0.0327916 0 0 0 -6.63471
214 1 11.3448 30.8442 0.0327916 0 0 0 -6.63471
218 1 14.5789 30.8442 0.0327916 0 0 0 -6.63471
220 1 12.9619 31.7777 2.61662 0 0 0 -6.63471
255 1 11.3448 34.5785 2.61662 0 0 0 -6.63471
257 1 12.9619 33.6449 0.0327916 0 0 0 -6.63471
259 1 14.5789 34.5785 2.61662 0 0 0 -6.63471
222 1 17.813 30.8442 0.0327916 0 0 0 -6.63471
224 1 16.1959 31.7777 2.61662 0 0 0 -6.63471
226 1 21.047 30.8442 0.0327916 0 0 0 -6.63471
228 1 19.43 31.7777 2.61662 0 0 0 -6.63471
261 1 16.1959 33.6449 0.0327916 0 0 0 -6.63471
263 1 17.813 34.5785 2.61662 0 0 0 -6.63471
265 1 19.43 33.6449 0.0327916 0 0 0 -6.63471
267 1 21.047 34.5785 2.61662 0 0 0 -6.63471
230 1 24.2811 30.8442 0.0327916 0 0 0 -6.63471
232 1 22.664 31.7777 2.61662 0 0 0 -6.63471
236 1 25.8981 31.7777 2.61662 0 0 0 -6.63471
269 1 22.664 33.6449 0.0327916 0 0 0 -6.63471
271 1 24.2811 34.5785 2.61662 0 0 0 -6.63471
273 1 25.8981 33.6449 0.0327916 0 0 0 -6.63471
234 1 27.5151 30.8442 0.0327916 0 0 0 -6.63471
238 1 30.7492 30.8442 0.0327916 0 0 0 -6.63471
240 1 29.1322 31.7777 2.61662 0 0 0 -6.63471
275 1 27.5151 34.5785 2.61662 0 0 0 -6.63471
277 1 29.1322 33.6449 0.0327916 0 0 0 -6.63471
279 1 30.7492 34.5785 2.61662 0 0 0 -6.63471
242 1 1.64268 36.4457 0.0327916 0 0 0 -6.63471
244 1 0.0256524 37.3793 2.61662 0 0 0 -6.63471
246 1 4.87674 36.4457 0.0327916 0 0 0 -6.63471
248 1 3.25971 37.3793 2.61662 0 0 0 -6.63471
281 1 0.0256524 39.2465 0.0327916 0 0 0 -6.63471
285 1 3.25971 39.2465 0.0327916 0 0 0 -6.63471
250 1 8.11079 36.4457 0.0327916 0 0 0 -6.63471
252 1 6.49376 37.3793 2.61662 0 0 0 -6.63471
256 1 9.72782 37.3793 2.61662 0 0 0 -6.63471
289 1 6.49376 39.2465 0.0327916 0 0 0 -6.63471
293 1 9.72782 39.2465 0.0327916 0 0 0 -6.63471
254 1 11.3448 36.4457 0.0327916 0 0 0 -6.63471
258 1 14.5789 36.4457 0.0327916 0 0 0 -6.63471
260 1 12.9619 37.3793 2.61662 0 0 0 -6.63471
297 1 12.9619 39.2465 0.0327916 0 0 0 -6.63471
262 1 17.813 36.4457 0.0327916 0 0 0 -6.63471
264 1 16.1959 37.3793 2.61662 0 0 0 -6.63471
266 1 21.047 36.4457 0.0327916 0 0 0 -6.63471
268 1 19.43 37.3793 2.61662 0 0 0 -6.63471
301 1 16.1959 39.2465 0.0327916 0 0 0 -6.63471
305 1 19.43 39.2465 0.0327916 0 0 0 -6.63471
270 1 24.2811 36.4457 0.0327916 0 0 0 -6.63471
272 1 22.664 37.3793 2.61662 0 0 0 -6.63471
276 1 25.8981 37.3793 2.61662 0 0 0 -6.63471
309 1 22.664 39.2465 0.0327916 0 0 0 -6.63471
313 1 25.8981 39.2465 0.0327916 0 0 0 -6.63471
274 1 27.5151 36.4457 0.0327916 0 0 0 -6.63471
278 1 30.7492 36.4457 0.0327916 0 0 0 -6.63471
280 1 29.1322 37.3793 2.61662 0 0 0 -6.63471
317 1 29.1322 39.2465 0.0327916 0 0 0 -6.63471
282 1 1.64268 42.0472 0.0327916 0 0 0 -6.63471
283 1 1.64268 40.1801 2.61662 0 0 0 -6.63471
284 1 0.0256524 42.9808 2.61662 0 0 0 -6.63471
286 1 4.87674 42.0472 0.0327916 0 0 0 -6.63471
287 1 4.87674 40.1801 2.61662 0 0 0 -6.63471
288 1 3.25971 42.9808 2.61662 0 0 0 -6.63471
290 1 8.11079 42.0472 0.0327916 0 0 0 -6.63471
291 1 8.11079 40.1801 2.61662 0 0 0 -6.63471
292 1 6.49376 42.9808 2.61662 0 0 0 -6.63471
296 1 9.72782 42.9808 2.61662 0 0 0 -6.63471
294 1 11.3448 42.0472 0.0327916 0 0 0 -6.63471
295 1 11.3448 40.1801 2.61662 0 0 0 -6.63471
298 1 14.5789 42.0472 0.0327916 0 0 0 -6.63471
299 1 14.5789 40.1801 2.61662 0 0 0 -6.63471
300 1 12.9619 42.9808 2.61662 0 0 0 -6.63471
302 1 17.813 42.0472 0.0327916 0 0 0 -6.63471
303 1 17.813 40.1801 2.61662 0 0 0 -6.63471
304 1 16.1959 42.9808 2.61662 0 0 0 -6.63471
306 1 21.047 42.0472 0.0327916 0 0 0 -6.63471
307 1 21.047 40.1801 2.61662 0 0 0 -6.63471
308 1 19.43 42.9808 2.61662 0 0 0 -6.63471
310 1 24.2811 42.0472 0.0327916 0 0 0 -6.63471
311 1 24.2811 40.1801 2.61662 0 0 0 -6.63471
312 1 22.664 42.9808 2.61662 0 0 0 -6.63471
316 1 25.8981 42.9808 2.61662 0 0 0 -6.63471
314 1 27.5151 42.0472 0.0327916 0 0 0 -6.63471
315 1 27.5151 40.1801 2.61662 0 0 0 -6.63471
318 1 30.7492 42.0472 0.0327916 0 0 0 -6.63471
319 1 30.7492 40.1801 2.61662 0 0 0 -6.63471
320 1 29.1322 42.9808 2.61662 0 0 0 -6.63471
321 1 0.0256524 0.0356383 5.20044 0 0 0 -6.63471
322 1 1.64268 2.83641 5.20044 0 0 0 -6.63471
323 1 1.64268 0.96923 7.78427 0 0 0 -6.63471
324 1 0.0256524 3.77 7.78427 0 0 0 -6.63471
325 1 3.25971 0.0356383 5.20044 0 0 0 -6.63471
326 1 4.87674 2.83641 5.20044 0 0 0 -6.63471
327 1 4.87674 0.96923 7.78427 0 0 0 -6.63471
328 1 3.25971 3.77 7.78427 0 0 0 -6.63471
329 1 6.49376 0.0356383 5.20044 0 0 0 -6.63471
330 1 8.11079 2.83641 5.20044 0 0 0 -6.63471
331 1 8.11079 0.96923 7.78427 0 0 0 -6.63471
332 1 6.49376 3.77 7.78427 0 0 0 -6.63471
333 1 9.72782 0.0356383 5.20044 0 0 0 -6.63471
336 1 9.72782 3.77 7.78427 0 0 0 -6.63471
334 1 11.3448 2.83641 5.20044 0 0 0 -6.63471
335 1 11.3448 0.96923 7.78427 0 0 0 -6.63471
337 1 12.9619 0.0356383 5.20044 0 0 0 -6.63471
338 1 14.5789 2.83641 5.20044 0 0 0 -6.63471
339 1 14.5789 0.96923 7.78427 0 0 0 -6.63471
340 1 12.9619 3.77 7.78427 0 0 0 -6.63471
341 1 16.1959 0.0356383 5.20044 0 0 0 -6.63471
342 1 17.813 2.83641 5.20044 0 0 0 -6.63471
343 1 17.813 0.96923 7.78427 0 0 0 -6.63471
344 1 16.1959 3.77 7.78427 0 0 0 -6.63471
345 1 19.43 0.0356383 5.20044 0 0 0 -6.63471
346 1 21.047 2.83641 5.20044 0 0 0 -6.63471
347 1 21.047 0.96923 7.78427 0 0 0 -6.63471
348 1 19.43 3.77 7.78427 0 0 0 -6.63471
349 1 22.664 0.0356383 5.20044 0 0 0 -6.63471
350 1 24.2811 2.83641 5.20044 0 0 0 -6.63471
351 1 24.2811 0.96923 7.78427 0 0 0 -6.63471
352 1 22.664 3.77 7.78427 0 0 0 -6.63471
353 1 25.8981 0.0356383 5.20044 0 0 0 -6.63471
356 1 25.8981 3.77 7.78427 0 0 0 -6.63471
354 1 27.5151 2.83641 5.20044 0 0 0 -6.63471
355 1 27.5151 0.96923 7.78427 0 0 0 -6.63471
357 1 29.1322 0.0356383 5.20044 0 0 0 -6.63471
358 1 30.7492 2.83641 5.20044 0 0 0 -6.63471
359 1 30.7492 0.96923 7.78427 0 0 0 -6.63471
360 1 29.1322 3.77 7.78427 0 0 0 -6.63471
361 1 0.0256524 5.63719 5.20044 0 0 0 -6.63471
362 1 1.64268 8.43796 5.20044 0 0 0 -6.63471
363 1 1.64268 6.57078 7.78427 0 0 0 -6.63471
364 1 0.0256524 9.37155 7.78427 0 0 0 -6.63471
365 1 3.25971 5.63719 5.20044 0 0 0 -6.63471
366 1 4.87674 8.43796 5.20044 0 0 0 -6.63471
367 1 4.87674 6.57078 7.78427 0 0 0 -6.63471
368 1 3.25971 9.37155 7.78427 0 0 0 -6.63471
369 1 6.49376 5.63719 5.20044 0 0 0 -6.63471
370 1 8.11079 8.43796 5.20044 0 0 0 -6.63471
371 1 8.11079 6.57078 7.78427 0 0 0 -6.63471
372 1 6.49376 9.37155 7.78427 0 0 0 -6.63471
373 1 9.72782 5.63719 5.20044 0 0 0 -6.63471
376 1 9.72782 9.37155 7.78427 0 0 0 -6.63471
374 1 11.3448 8.43796 5.20044 0 0 0 -6.63471
375 1 11.3448 6.57078 7.78427 0 0 0 -6.63471
377 1 12.9619 5.63719 5.20044 0 0 0 -6.63471
378 1 14.5789 8.43796 5.20044 0 0 0 -6.63471
379 1 14.5789 6.57078 7.78427 0 0 0 -6.63471
380 1 12.9619 9.37155 7.78427 0 0 0 -6.63471
381 1 16.1959 5.63719 5.20044 0 0 0 -6.63471
382 1 17.813 8.43796 5.20044 0 0 0 -6.63471
383 1 17.813 6.57078 7.78427 0 0 0 -6.63471
384 1 16.1959 9.37155 7.78427 0 0 0 -6.63471
385 1 19.43 5.63719 5.20044 0 0 0 -6.63471
386 1 21.047 8.43796 5.20044 0 0 0 -6.63471
387 1 21.047 6.57078 7.78427 0 0 0 -6.63471
388 1 19.43 9.37155 7.78427 0 0 0 -6.63471
389 1 22.664 5.63719 5.20044 0 0 0 -6.63471
390 1 24.2811 8.43796 5.20044 0 0 0 -6.63471
391 1 24.2811 6.57078 7.78427 0 0 0 -6.63471
392 1 22.664 9.37155 7.78427 0 0 0 -6.63471
393 1 25.8981 5.63719 5.20044 0 0 0 -6.63471
396 1 25.8981 9.37155 7.78427 0 0 0 -6.63471
394 1 27.5151 8.43796 5.20044 0 0 0 -6.63471
395 1 27.5151 6.57078 7.78427 0 0 0 -6.63471
397 1 29.1322 5.63719 5.20044 0 0 0 -6.63471
398 1 30.7492 8.43796 5.20044 0 0 0 -6.63471
399 1 30.7492 6.57078 7.78427 0 0 0 -6.63471
400 1 29.1322 9.37155 7.78427 0 0 0 -6.63471
401 1 0.0256524 11.2387 5.20044 0 0 0 -6.63471
402 1 1.64268 14.0395 5.20044 0 0 0 -6.63471
403 1 1.64268 12.1723 7.78427 0 0 0 -6.63471
405 1 3.25971 11.2387 5.20044 0 0 0 -6.63471
406 1 4.87674 14.0395 5.20044 0 0 0 -6.63471
407 1 4.87674 12.1723 7.78427 0 0 0 -6.63471
409 1 6.49376 11.2387 5.20044 0 0 0 -6.63471
410 1 8.11079 14.0395 5.20044 0 0 0 -6.63471
411 1 8.11079 12.1723 7.78427 0 0 0 -6.63471
413 1 9.72782 11.2387 5.20044 0 0 0 -6.63471
414 1 11.3448 14.0395 5.20044 0 0 0 -6.63471
415 1 11.3448 12.1723 7.78427 0 0 0 -6.63471
417 1 12.9619 11.2387 5.20044 0 0 0 -6.63471
418 1 14.5789 14.0395 5.20044 0 0 0 -6.63471
419 1 14.5789 12.1723 7.78427 0 0 0 -6.63471
421 1 16.1959 11.2387 5.20044 0 0 0 -6.63471
422 1 17.813 14.0395 5.20044 0 0 0 -6.63471
423 1 17.813 12.1723 7.78427 0 0 0 -6.63471
425 1 19.43 11.2387 5.20044 0 0 0 -6.63471
426 1 21.047 14.0395 5.20044 0 0 0 -6.63471
427 1 21.047 12.1723 7.78427 0 0 0 -6.63471
429 1 22.664 11.2387 5.20044 0 0 0 -6.63471
430 1 24.2811 14.0395 5.20044 0 0 0 -6.63471
431 1 24.2811 12.1723 7.78427 0 0 0 -6.63471
433 1 25.8981 11.2387 5.20044 0 0 0 -6.63471
434 1 27.5151 14.0395 5.20044 0 0 0 -6.63471
435 1 27.5151 12.1723 7.78427 0 0 0 -6.63471
437 1 29.1322 11.2387 5.20044 0 0 0 -6.63471
438 1 30.7492 14.0395 5.20044 0 0 0 -6.63471
439 1 30.7492 12.1723 7.78427 0 0 0 -6.63471
404 1 0.0256524 14.9731 7.78427 0 0 0 -6.63471
408 1 3.25971 14.9731 7.78427 0 0 0 -6.63471
441 1 0.0256524 16.8403 5.20044 0 0 0 -6.63471
442 1 1.64268 19.6411 5.20044 0 0 0 -6.63471
443 1 1.64268 17.7739 7.78427 0 0 0 -6.63471
445 1 3.25971 16.8403 5.20044 0 0 0 -6.63471
446 1 4.87674 19.6411 5.20044 0 0 0 -6.63471
447 1 4.87674 17.7739 7.78427 0 0 0 -6.63471
412 1 6.49376 14.9731 7.78427 0 0 0 -6.63471
416 1 9.72782 14.9731 7.78427 0 0 0 -6.63471
449 1 6.49376 16.8403 5.20044 0 0 0 -6.63471
450 1 8.11079 19.6411 5.20044 0 0 0 -6.63471
451 1 8.11079 17.7739 7.78427 0 0 0 -6.63471
453 1 9.72782 16.8403 5.20044 0 0 0 -6.63471
420 1 12.9619 14.9731 7.78427 0 0 0 -6.63471
454 1 11.3448 19.6411 5.20044 0 0 0 -6.63471
455 1 11.3448 17.7739 7.78427 0 0 0 -6.63471
457 1 12.9619 16.8403 5.20044 0 0 0 -6.63471
458 1 14.5789 19.6411 5.20044 0 0 0 -6.63471
459 1 14.5789 17.7739 7.78427 0 0 0 -6.63471
424 1 16.1959 14.9731 7.78427 0 0 0 -6.63471
428 1 19.43 14.9731 7.78427 0 0 0 -6.63471
461 1 16.1959 16.8403 5.20044 0 0 0 -6.63471
462 1 17.813 19.6411 5.20044 0 0 0 -6.63471
463 1 17.813 17.7739 7.78427 0 0 0 -6.63471
465 1 19.43 16.8403 5.20044 0 0 0 -6.63471
466 1 21.047 19.6411 5.20044 0 0 0 -6.63471
467 1 21.047 17.7739 7.78427 0 0 0 -6.63471
432 1 22.664 14.9731 7.78427 0 0 0 -6.63471
436 1 25.8981 14.9731 7.78427 0 0 0 -6.63471
469 1 22.664 16.8403 5.20044 0 0 0 -6.63471
470 1 24.2811 19.6411 5.20044 0 0 0 -6.63471
471 1 24.2811 17.7739 7.78427 0 0 0 -6.63471
473 1 25.8981 16.8403 5.20044 0 0 0 -6.63471
440 1 29.1322 14.9731 7.78427 0 0 0 -6.63471
474 1 27.5151 19.6411 5.20044 0 0 0 -6.63471
475 1 27.5151 17.7739 7.78427 0 0 0 -6.63471
477 1 29.1322 16.8403 5.20044 0 0 0 -6.63471
478 1 30.7492 19.6411 5.20044 0 0 0 -6.63471
479 1 30.7492 17.7739 7.78427 0 0 0 -6.63471
444 1 0.0256524 20.5746 7.78427 0 0 0 -6.63471
448 1 3.25971 20.5746 7.78427 0 0 0 -6.63471
481 1 0.0256524 22.4418 5.20044 0 0 0 -6.63471
483 1 1.64268 23.3754 7.78427 0 0 0 -6.63471
485 1 3.25971 22.4418 5.20044 0 0 0 -6.63471
487 1 4.87674 23.3754 7.78427 0 0 0 -6.63471
452 1 6.49376 20.5746 7.78427 0 0 0 -6.63471
456 1 9.72782 20.5746 7.78427 0 0 0 -6.63471
489 1 6.49376 22.4418 5.20044 0 0 0 -6.63471
491 1 8.11079 23.3754 7.78427 0 0 0 -6.63471
493 1 9.72782 22.4418 5.20044 0 0 0 -6.63471
460 1 12.9619 20.5746 7.78427 0 0 0 -6.63471
495 1 11.3448 23.3754 7.78427 0 0 0 -6.63471
497 1 12.9619 22.4418 5.20044 0 0 0 -6.63471
499 1 14.5789 23.3754 7.78427 0 0 0 -6.63471
464 1 16.1959 20.5746 7.78427 0 0 0 -6.63471
468 1 19.43 20.5746 7.78427 0 0 0 -6.63471
501 1 16.1959 22.4418 5.20044 0 0 0 -6.63471
503 1 17.813 23.3754 7.78427 0 0 0 -6.63471
505 1 19.43 22.4418 5.20044 0 0 0 -6.63471
507 1 21.047 23.3754 7.78427 0 0 0 -6.63471
472 1 22.664 20.5746 7.78427 0 0 0 -6.63471
476 1 25.8981 20.5746 7.78427 0 0 0 -6.63471
509 1 22.664 22.4418 5.20044 0 0 0 -6.63471
511 1 24.2811 23.3754 7.78427 0 0 0 -6.63471
513 1 25.8981 22.4418 5.20044 0 0 0 -6.63471
480 1 29.1322 20.5746 7.78427 0 0 0 -6.63471
515 1 27.5151 23.3754 7.78427 0 0 0 -6.63471
517 1 29.1322 22.4418 5.20044 0 0 0 -6.63471
519 1 30.7492 23.3754 7.78427 0 0 0 -6.63471
482 1 1.64268 25.2426 5.20044 0 0 0 -6.63471
484 1 0.0256524 26.1762 7.78427 0 0 0 -6.63471
486 1 4.87674 25.2426 5.20044 0 0 0 -6.63471
488 1 3.25971 26.1762 7.78427 0 0 0 -6.63471
521 1 0.0256524 28.0434 5.20044 0 0 0 -6.63471
523 1 1.64268 28.977 7.78427 0 0 0 -6.63471
525 1 3.25971 28.0434 5.20044 0 0 0 -6.63471
527 1 4.87674 28.977 7.78427 0 0 0 -6.63471
490 1 8.11079 25.2426 5.20044 0 0 0 -6.63471
492 1 6.49376 26.1762 7.78427 0 0 0 -6.63471
496 1 9.72782 26.1762 7.78427 0 0 0 -6.63471
529 1 6.49376 28.0434 5.20044 0 0 0 -6.63471
531 1 8.11079 28.977 7.78427 0 0 0 -6.63471
533 1 9.72782 28.0434 5.20044 0 0 0 -6.63471
494 1 11.3448 25.2426 5.20044 0 0 0 -6.63471
498 1 14.5789 25.2426 5.20044 0 0 0 -6.63471
500 1 12.9619 26.1762 7.78427 0 0 0 -6.63471
535 1 11.3448 28.977 7.78427 0 0 0 -6.63471
537 1 12.9619 28.0434 5.20044 0 0 0 -6.63471
539 1 14.5789 28.977 7.78427 0 0 0 -6.63471
502 1 17.813 25.2426 5.20044 0 0 0 -6.63471
504 1 16.1959 26.1762 7.78427 0 0 0 -6.63471
506 1 21.047 25.2426 5.20044 0 0 0 -6.63471
508 1 19.43 26.1762 7.78427 0 0 0 -6.63471
541 1 16.1959 28.0434 5.20044 0 0 0 -6.63471
543 1 17.813 28.977 7.78427 0 0 0 -6.63471
545 1 19.43 28.0434 5.20044 0 0 0 -6.63471
547 1 21.047 28.977 7.78427 0 0 0 -6.63471
510 1 24.2811 25.2426 5.20044 0 0 0 -6.63471
512 1 22.664 26.1762 7.78427 0 0 0 -6.63471
516 1 25.8981 26.1762 7.78427 0 0 0 -6.63471
549 1 22.664 28.0434 5.20044 0 0 0 -6.63471
551 1 24.2811 28.977 7.78427 0 0 0 -6.63471
553 1 25.8981 28.0434 5.20044 0 0 0 -6.63471
514 1 27.5151 25.2426 5.20044 0 0 0 -6.63471
518 1 30.7492 25.2426 5.20044 0 0 0 -6.63471
520 1 29.1322 26.1762 7.78427 0 0 0 -6.63471
555 1 27.5151 28.977 7.78427 0 0 0 -6.63471
557 1 29.1322 28.0434 5.20044 0 0 0 -6.63471
559 1 30.7492 28.977 7.78427 0 0 0 -6.63471
522 1 1.64268 30.8442 5.20044 0 0 0 -6.63471
524 1 0.0256524 31.7777 7.78427 0 0 0 -6.63471
526 1 4.87674 30.8442 5.20044 0 0 0 -6.63471
528 1 3.25971 31.7777 7.78427 0 0 0 -6.63471
561 1 0.0256524 33.6449 5.20044 0 0 0 -6.63471
563 1 1.64268 34.5785 7.78427 0 0 0 -6.63471
565 1 3.25971 33.6449 5.20044 0 0 0 -6.63471
567 1 4.87674 34.5785 7.78427 0 0 0 -6.63471
530 1 8.11079 30.8442 5.20044 0 0 0 -6.63471
532 1 6.49376 31.7777 7.78427 0 0 0 -6.63471
536 1 9.72782 31.7777 7.78427 0 0 0 -6.63471
569 1 6.49376 33.6449 5.20044 0 0 0 -6.63471
571 1 8.11079 34.5785 7.78427 0 0 0 -6.63471
573 1 9.72782 33.6449 5.20044 0 0 0 -6.63471
534 1 11.3448 30.8442 5.20044 0 0 0 -6.63471
538 1 14.5789 30.8442 5.20044 0 0 0 -6.63471
540 1 12.9619 31.7777 7.78427 0 0 0 -6.63471
575 1 11.3448 34.5785 7.78427 0 0 0 -6.63471
577 1 12.9619 33.6449 5.20044 0 0 0 -6.63471
579 1 14.5789 34.5785 7.78427 0 0 0 -6.63471
542 1 17.813 30.8442 5.20044 0 0 0 -6.63471
544 1 16.1959 31.7777 7.78427 0 0 0 -6.63471
546 1 21.047 30.8442 5.20044 0 0 0 -6.63471
548 1 19.43 31.7777 7.78427 0 0 0 -6.63471
581 1 16.1959 33.6449 5.20044 0 0 0 -6.63471
583 1 17.813 34.5785 7.78427 0 0 0 -6.63471
585 1 19.43 33.6449 5.20044 0 0 0 -6.63471
587 1 21.047 34.5785 7.78427 0 0 0 -6.63471
550 1 24.2811 30.8442 5.20044 0 0 0 -6.63471
552 1 22.664 31.7777 7.78427 0 0 0 -6.63471
556 1 25.8981 31.7777 7.78427 0 0 0 -6.63471
589 1 22.664 33.6449 5.20044 0 0 0 -6.63471
591 1 24.2811 34.5785 7.78427 0 0 0 -6.63471
593 1 25.8981 33.6449 5.20044 0 0 0 -6.63471
554 1 27.5151 30.8442 5.20044 0 0 0 -6.63471
558 1 30.7492 30.8442 5.20044 0 0 0 -6.63471
560 1 29.1322 31.7777 7.78427 0 0 0 -6.63471
595 1 27.5151 34.5785 7.78427 0 0 0 -6.63471
597 1 29.1322 33.6449 5.20044 0 0 0 -6.63471
599 1 30.7492 34.5785 7.78427 0 0 0 -6.63471
562 1 1.64268 36.4457 5.20044 0 0 0 -6.63471
564 1 0.0256524 37.3793 7.78427 0 0 0 -6.63471
566 1 4.87674 36.4457 5.20044 0 0 0 -6.63471
568 1 3.25971 37.3793 7.78427 0 0 0 -6.63471
601 1 0.0256524 39.2465 5.20044 0 0 0 -6.63471
605 1 3.25971 39.2465 5.20044 0 0 0 -6.63471
570 1 8.11079 36.4457 5.20044 0 0 0 -6.63471
572 1 6.49376 37.3793 7.78427 0 0 0 -6.63471
576 1 9.72782 37.3793 7.78427 0 0 0 -6.63471
609 1 6.49376 39.2465 5.20044 0 0 0 -6.63471
613 1 9.72782 39.2465 5.20044 0 0 0 -6.63471
574 1 11.3448 36.4457 5.20044 0 0 0 -6.63471
578 1 14.5789 36.4457 5.20044 0 0 0 -6.63471
580 1 12.9619 37.3793 7.78427 0 0 0 -6.63471
617 1 12.9619 39.2465 5.20044 0 0 0 -6.63471
582 1 17.813 36.4457 5.20044 0 0 0 -6.63471
584 1 16.1959 37.3793 7.78427 0 0 0 -6.63471
586 1 21.047 36.4457 5.20044 0 0 0 -6.63471
588 1 19.43 37.3793 7.78427 0 0 0 -6.63471
621 1 16.1959 39.2465 5.20044 0 0 0 -6.63471
625 1 19.43 39.2465 5.20044 0 0 0 -6.63471
590 1 24.2811 36.4457 5.20044 0 0 0 -6.63471
592 1 22.664 37.3793 7.78427 0 0 0 -6.63471
596 1 25.8981 37.3793 7.78427 0 0 0 -6.63471
629 1 22.664 39.2465 5.20044 0 0 0 -6.63471
633 1 25.8981 39.2465 5.20044 0 0 0 -6.63471
594 1 27.5151 36.4457 5.20044 0 0 0 -6.63471
598 1 30.7492 36.4457 5.20044 0 0 0 -6.63471
600 1 29.1322 37.3793 7.78427 0 0 0 -6.63471
637 1 29.1322 39.2465 5.20044 0 0 0 -6.63471
602 1 1.64268 42.0472 5.20044 0 0 0 -6.63471
603 1 1.64268 40.1801 7.78427 0 0 0 -6.63471
604 1 0.0256524 42.9808 7.78427 0 0 0 -6.63471
606 1 4.87674 42.0472 5.20044 0 0 0 -6.63471
607 1 4.87674 40.1801 7.78427 0 0 0 -6.63471
608 1 3.25971 42.9808 7.78427 0 0 0 -6.63471
610 1 8.11079 42.0472 5.20044 0 0 0 -6.63471
611 1 8.11079 40.1801 7.78427 0 0 0 -6.63471
612 1 6.49376 42.9808 7.78427 0 0 0 -6.63471
616 1 9.72782 42.9808 7.78427 0 0 0 -6.63471
614 1 11.3448 42.0472 5.20044 0 0 0 -6.63471
615 1 11.3448 40.1801 7.78427 0 0 0 -6.63471
618 1 14.5789 42.0472 5.20044 0 0 0 -6.63471
619 1 14.5789 40.1801 7.78427 0 0 0 -6.63471
620 1 12.9619 42.9808 7.78427 0 0 0 -6.63471
622 1 17.813 42.0472 5.20044 0 0 0 -6.63471
623 1 17.813 40.1801 7.78427 0 0 0 -6.63471
624 1 16.1959 42.9808 7.78427 0 0 0 -6.63471
626 1 21.047 42.0472 5.20044 0 0 0 -6.63471
627 1 21.047 40.1801 7.78427 0 0 0 -6.63471
628 1 19.43 42.9808 7.78427 0 0 0 -6.63471
630 1 24.2811 42.0472 5.20044 0 0 0 -6.63471
631 1 24.2811 40.1801 7.78427 0 0 0 -6.63471
632 1 22.664 42.9808 7.78427 0 0 0 -6.63471
636 1 25.8981 42.9808 7.78427 0 0 0 -6.63471
634 1 27.5151 42.0472 5.20044 0 0 0 -6.63471
635 1 27.5151 40.1801 7.78427 0 0 0 -6.63471
638 1 30.7492 42.0472 5.20044 0 0 0 -6.63471
639 1 30.7492 40.1801 7.78427 0 0 0 -6.63471
640 1 29.1322 42.9808 7.78427 0 0 0 -6.63471
641 1 0.0256524 0.0356383 10.3681 0 0 0 -6.63471
642 1 1.64268 2.83641 10.3681 0 0 0 -6.63471
643 1 1.64268 0.96923 12.9519 0 0 0 -6.63471
644 1 0.0256524 3.77 12.9519 0 0 0 -6.63471